<?xml version="1.0"?>
<VTKFile type="StructuredGrid" version="0.1" byte_order="BigEndian" >
    <StructuredGrid  WholeExtent="0 19 0 5 0 3">
<Piece Extent="0 19 0 5 0 3">
    <PointData Vectors="Disp"  >
<DataArray type="Float32" Name="Stress" NumberOfComponents="6" format="ascii">
-7917.366548981872 -3393.157092420802 -3393.157092420802 -2453.0089848374396 0.0 -1066.1954088277441
-5505.107722596949 -102.2128215277703 88.21071136600165 -247.62724293597768 236.7745448045121 545.6305327174683
-5592.645835403098 -343.12213747563055 -367.478502713079 -297.47215102860685 197.31901688671692 118.56896842529667
-5431.329951495666 -260.16053126135466 -283.0405470751783 -86.44151000503406 224.32975316465792 44.29685518009263
-5110.5885847329955 -233.45199189572236 -288.71961338232177 -10.210265083758175 196.83491719475967 -59.82896598176148
-4826.914418193546 -216.8519619374897 -265.8028993531386 44.44503847094417 187.33228949144737 -93.98911187928734
-4504.57218365338 -196.07135084463084 -249.20881692207922 87.60149550284407 172.05488059018037 -133.14086168183013
-4183.451644560582 -179.98912127125118 -230.7617793322653 115.7350977327843 158.98238427339925 -155.016756603164
-3855.1133392865336 -163.54330258502023 -212.73720518223047 136.87785231947248 145.69545051920863 -172.40091754034702
-3524.8918899179566 -148.19253087409788 -194.40817292268696 151.24851970775245 132.695257285128 -183.91297347045784
-3192.598241794936 -133.13544603367586 -176.07042391684269 161.24479995137332 119.79751754898498 -191.93184243571082
-2859.3120330828156 -118.422497273835 -157.61894519604 167.72118511044988 107.00714233539217 -197.21402783783145
-2525.14105210552 -103.93128172074682 -139.29481493535718 171.6000042692456 94.19478609863107 -200.10397147356247
-2190.7965559220315 -89.27428579553577 -120.45910596800343 172.82134133087737 81.63432991313236 -201.66689249010096
-1857.4474286274485 -75.86512395091518 -103.22579226380282 173.5184500414199 68.39069878194194 -200.35125872085703
-1519.130654060294 -57.53066056026364 -80.37866655642406 167.18965337219103 56.966183950013516 -200.65334533107932
-1208.3332279330439 -54.95533515065466 -75.85869098028977 172.4165194031834 40.75489032606683 -187.33795864872988
-812.3472264134184 -3.208623029285775 -19.308455199231673 138.20264171424083 35.84021550791132 -209.7198717914481
-748.6625397732942 -104.65214815499749 -145.43454698034697 181.11352435683236 13.005657024701433 -28.043123009217158
-153.400586901128 32.07742005683885 336.3890344515219 159.88948168298688 150.96206409791736 -321.6101721814464
-7135.248592399248 -3057.96368245682 -3057.96368245682 -599.6797476056763 0.0 -2273.9592524248674
-6351.257360764044 -1287.8806451841865 -300.5058964784909 -884.7125322277411 128.075830876427 -37.1603711718996
-5803.629951638782 -706.6521430623197 -325.2699836145688 -459.1871901336373 143.59135058251715 -76.32057199950003
-5628.361651851337 -559.7380270400324 -316.0811970789491 -267.8584487095085 137.9596840713455 -100.7938373749735
-5178.572858492122 -364.24610157508164 -267.2923688745585 -115.14143420170393 130.47812171491282 -81.7850892344722
-4859.311007397799 -271.45276744111925 -247.59872142528548 -12.085288421236234 115.13752314444676 -74.49100390616303
-4507.6253028610845 -194.1114808595828 -222.54845312068653 62.17776175174748 104.72910625381769 -70.02395198293718
-4171.032616857763 -141.73113460253148 -202.38867057787627 116.03220306227574 93.90397412799396 -66.03940779806092
-3833.367507832793 -103.11704157033 -183.2958259815714 154.21650658969543 84.76376632145126 -63.965212217687025
-3497.609667912947 -74.64187522685961 -165.29448572516662 181.18187485785796 76.07568279147317 -62.20763265548571
-3162.666030232476 -53.2062580497352 -148.06181786277386 199.63044222839684 67.93154280528333 -61.09853317344431
-2828.365478408432 -36.475183056052856 -131.30280400820203 211.7170999099784 60.06592397760186 -60.38106403800818
-2494.2681639402617 -22.614530799552313 -114.85176700883756 218.71855579459753 52.39531706495544 -59.88731043298906
-2160.9353970585225 -10.593685975330345 -98.61789192723006 221.70349857928662 44.74379195506229 -59.80434134325372
-1826.346241692092 1.842557654080224 -82.3280867840574 220.5980195523867 37.16958052903439 -59.74944549610365
-1492.6822603788337 14.624402007481535 -65.16137350168236 216.7665132511285 29.190094121304217 -60.78349823470151
-1162.1449981282117 28.18161336920059 -52.95132880676968 209.14708234524366 21.315277362658865 -58.62846557525003
-798.7375114968261 60.584665235494526 -20.07813630955394 195.317983184722 14.747123670444395 -71.89304830479415
-628.2620693477193 -6.078917049968766 -97.35545194487786 201.51956720310045 2.9516059551524765 29.09319447159835
-100.78854292577674 145.25239131294404 196.5451309386904 101.00857617854577 49.62295330109748 -124.1885108333665
-7761.251209270877 -3326.250518258947 -3326.250518258947 -214.5478944544069 0.0 -2445.4741355809247
-6090.5751509508 -1384.9321974682348 -134.3415935629917 -95.5144121381111 -3.0743539738980816 -19.268784400154242
-5872.233063169452 -1202.227288665712 -396.5097244998317 -197.78860296238304 -22.33991427750569 -105.35633410814908
-5694.974327142489 -939.8553711411387 -355.158601740445 -84.3215479145702 -18.128027963861197 -116.36888696046151
-5243.998517390472 -688.8164672687356 -318.20447986727356 -57.5205929662597 -22.954473788516143 -102.6885316062679
-4919.60604812439 -530.5061807062443 -293.4109340505926 -20.044092634900597 -22.30465630390088 -86.72210927569168
-4558.341679411991 -403.12156308390786 -265.1910510456621 2.4843152185331463 -24.025154946969952 -79.31821802369228
-4216.598040087005 -312.8635343424096 -241.77061232711662 19.795557565797555 -23.690531214580158 -71.79860631894276
-3873.744637524779 -243.92872357729402 -219.26847423642585 32.24660087823812 -23.23856618697999 -67.60479644879469
-3533.717498685433 -191.49588094178966 -198.0170553620818 40.943826061677946 -22.10177252361005 -64.26899533904177
-3194.7154226237526 -150.1986320188314 -177.54458808900773 46.98011024959326 -20.694170200828378 -62.10596845411211
-2856.5897289201357 -116.47402464907191 -157.58371384989687 50.87734142766491 -19.03807374282495 -60.699722542241375
-2518.8162382972305 -87.46806898552097 -137.9966589898753 53.21821918132284 -17.26873311464355 -59.80118129352755
-2181.6006562848315 -60.944344187629554 -118.46652654241637 54.021213551338455 -15.39067478298991 -59.625120643776064
-1843.756745637292 -34.99866804955764 -99.39907462075848 54.05782442831232 -13.614914628521891 -59.52318288750578
-1504.095935704585 -6.432900601953747 -78.23043775122665 52.265924384884535 -11.793813484962412 -61.437018092179116
-1170.4255829306928 20.530322250777658 -64.49049179697568 51.244268360252526 -10.105924064559483 -58.818657349596776
-792.7323981815507 75.66960559303413 -25.74765960856979 46.122569027273286 -9.529743434087369 -75.58356070146688
-598.3009301825541 56.818692920272326 -89.86533909381899 38.08847305736951 -7.964993837953434 25.476619233287213
-80.52514792368044 286.7123637283087 203.08156042219375 -14.81849882682791 -27.079821548327597 -133.22996683737477
-7761.251209063394 -3326.2505181700258 -3326.2505181700258 214.54789442592624 0.0 -2445.4741354308894
-6090.57515094822 -1384.932197648521 -134.34159379424875 95.51441267536244 3.0743544556318585 -19.26878464919755
-5872.233064229047 -1202.2272895409117 -396.509725710222 197.78860313984978 22.33991360059364 -105.35633523418906
-5694.974327951644 -939.8553716799465 -355.1586026582928 84.32154704174755 18.1280262938349 -116.36888664004688
-5243.998516374856 -688.8164664217013 -318.2044787230136 57.5205922036056 22.95447437905551 -102.68852929701255
-4919.606046450385 -530.5061794992116 -293.41093210879046 20.04409330398531 22.30465920965985 -86.7221092626316
-4558.341679910145 -403.1215635282738 -265.1910515915324 -2.484313959580802 24.0251550092129 -79.3182213038761
-4216.598042328707 -312.86353597758307 -241.77061493096255 -19.795557757386554 23.690527493812876 -71.79860704373478
-3873.744637803966 -243.92872373756882 -219.2684745876055 -32.246602356821136 23.23856517104479 -67.60479266254559
-3533.7174963347024 -191.49587923064814 -198.0170526233028 -40.94382644404622 22.101776456523876 -64.26899378776983
-3194.7154215558207 -150.19863124256653 -177.54458682583885 -46.9801088844681 20.694172131284173 -62.105972207784696
-2856.5897309089805 -116.47402607445065 -157.58371617902003 -50.87734055069787 19.038070184799277 -60.69972473886033
-2518.816239920384 -87.46807019671701 -137.99666088739832 -53.21822014927398 17.268730608127186 -59.801178040027516
-2181.600654996457 -60.944343302227935 -118.46652500983225 -54.021214706885 15.39067753102248 -59.625118212251
-1843.7567438440522 -34.99866669735229 -99.3990725391796 -54.05782401834299 13.614917182393535 -59.52318533857077
-1504.095936154142 -6.43290084478906 -78.23043832472956 -52.26592323228048 11.793811756345162 -61.4370202341751
-1170.4255844555255 20.530321096687658 -64.49049354645146 -51.24426821229536 10.105922042365105 -58.818655795848194
-792.7323984536322 75.6696052936698 -25.74765987874676 -46.122569928007636 9.529744191413196 -75.58355935686724
-598.3009293509531 56.818693520774275 -89.86533820572151 -38.088473473413615 7.9649950116641355 25.476618578614318
-80.52514745882607 286.7123640583932 203.08156076383972 14.818499321116281 27.079821053065647 -133.22996710333297
-7135.248592028654 -3057.963682297994 -3057.963682297994 599.6797475735419 0.0 -2273.959252159377
-6351.257360650706 -1287.8806453668938 -300.5058968183077 884.7125322618399 -128.07583084543217 -37.160371554139644
-5803.629953530127 -706.6521445479427 -325.2699857841833 459.18719024688403 -143.59135052516692 -76.32057399796659
-5628.361653487209 -559.7380281480619 -316.081198857004 267.858448663292 -137.95968407645788 -100.79383691256882
-5178.572856694478 -364.2461001499596 -267.2923668336465 115.14143400623743 -130.47812177852862 -81.78508519193772
-4859.311004120916 -271.45276510111853 -247.5987177436275 12.085288437041166 -115.13752316202458 -74.49100379634703
-4507.625303688548 -194.11148155426804 -222.54845405624508 -62.177761476047614 -104.72910620740824 -70.02395770293857
-4171.0326212184045 -141.73113774013973 -202.38867549501424 -116.03220301451535 -93.90397409841506 -66.039409122241
-3833.367508459947 -103.1170419705843 -183.29582670094317 -154.2165069069307 -84.76376634082892 -63.965205617868044
-3497.609663332451 -74.64187193588191 -165.2944805490705 -181.18187497933266 -76.07568281838753 -62.20762992308166
-3162.6660281350773 -53.20625654041328 -148.06181546529888 -199.63044191710205 -67.93154281348617 -61.0985397298493
-2828.3654823224406 -36.47518584078739 -131.30280843533006 -211.71709972959118 -60.0659239669608 -60.381067864084386
-2494.2681670645347 -22.61453308426337 -114.85177056789473 -218.71855605804438 -52.39531703511606 -59.887304722018904
-2160.9353944522118 -10.593684166517505 -98.61788896744542 -221.70349878493008 -44.743791940911215 -59.80433713156289
-1826.3462382720481 1.8425601707622263 -82.32808290068789 -220.59801936383212 -37.16958057086418 -59.749449839706045
-1492.6822614106618 14.624401367397013 -65.16137468868573 -216.7665130629194 -29.19009416137473 -60.78350192732037
-1162.1450010156668 28.181611240156258 -52.95133205782281 -209.14708245325315 -21.315277322229665 -58.62846276952857
-798.7375118360827 60.584664870676704 -20.078136692028153 -195.3179833304183 -14.74712361570186 -71.89304600629087
-628.2620677791247 -6.078915930168421 -97.35545028917198 -201.51956714574519 -2.9516059663401086 29.093193239865684
-100.78854213361383 145.252391817028 196.54513151439278 -101.00857614239092 -49.62295332217464 -124.18851126040951
-5505.107722376178 -102.21282148849605 88.21071134447595 247.62724267185084 -236.77454501792297 545.6305328046263
-5592.645836041553 -343.12213798453513 -367.47850346574637 297.47215101290783 -197.3190165223268 118.56896795061121
-5431.329952469068 -260.16053186279214 -283.0405479058833 86.44151045365705 -224.32975234688524 44.296854983168956
-5110.588584170356 -233.45199142993715 -288.7196126950695 10.210265361273366 -196.83491751407155 -59.828965182251444
-4826.914416444878 -216.85196079994125 -265.8028977492437 -44.4450388299017 -187.3322909258395 -93.98911160580097
-4504.572183784768 -196.0713510060159 -249.2088171717122 -87.60149599442947 -172.05488059923724 -133.14086274860927
-4183.451646832251 -179.98912276324882 -230.7617814432465 -115.73509759007312 -158.98238243303805 -155.01675702606505
-3855.113339793135 -163.54330287584935 -212.73720558264733 -136.8778517372747 -145.69545002975403 -172.40091631771818
-3524.8918875148725 -148.19252930088237 -194.40817069551315 -151.2485195875292 -132.69525922914988 -183.91297288152722
-3192.5982406551316 -133.13544529184674 -176.07042286599733 -161.24480047514345 -119.7975185004632 -191.93184368886224
-2859.3120352182054 -118.42249865067834 -157.61894714060844 -167.72118546051175 -107.00714058260623 -197.21402853898
-2525.14105366682 -103.93128276703078 -139.29481642546608 -171.60000392988673 -94.1947848539088 -200.1039703007912
-2190.796554350516 -89.274284817188 -120.45910459439801 -172.82134084441876 -81.63433125663033 -201.66689178768848
-1857.4474269880488 -75.86512283655259 -103.225790673441 -173.51845012716862 -68.39070005517132 -200.35125973187735
-1519.130654932635 -57.53066105153641 -80.37866723205047 -167.1896538700444 -56.96618311879808 -200.65334589678065
-1208.3332292674754 -54.95533606897334 -75.8586922895193 -172.41651956606034 -40.75488931472197 -187.3379578443135
-812.3472261899356 -3.2086229801720947 -19.308455161839504 -138.20264132424202 -35.84021585486455 -209.71987150326837
-748.6625390856709 -104.65214767994178 -145.43454631888227 -181.11352408961088 -13.0056575998482 -28.043123497578648
-153.40058669369878 32.077420200093 336.389034619077 -159.88948188482118 -150.96206385472726 -321.61017213799397
-748.6625390856709 -104.65214767994178 -145.43454631888227 -181.11352408961088 -13.0056575998482 -28.043123497578648
-1998.2626373090152 -856.398273132435 -856.398273132435 -658.0478520922935 0.0 697.3430176524098
-1551.9193266139253 -104.38868885770671 -198.80019107521196 87.01301584464287 432.5106075023075 146.7076392530608
-1319.9738098166554 -46.023019391321554 -79.96660513496587 -2.3450044436463235 369.5235048433187 378.1929571916544
-1354.5658284161875 -93.76647046940042 -212.77857255730785 0.5050152340173095 302.06007429622605 -40.39413690716211
-1282.4884982983524 -74.448870735019 -173.07470539077167 7.996936889509314 270.68738970547327 -204.501755181963
-1224.7978663679296 -76.28771846748879 -175.60463541540486 6.413569438143525 235.02072186879582 -346.88327174620326
-1146.7120830315162 -68.29257876255599 -160.491486711497 9.873920128693044 211.0550152979323 -435.370176509319
-1069.337271544897 -64.1094042672973 -151.07165882504452 10.765607640082267 188.8025034172125 -499.37636797897216
-987.6241443437673 -58.57064465298936 -139.19850264936795 11.997011179565789 169.61986349363676 -543.5619891888676
-904.9030636406449 -53.54777374162552 -127.79436309634957 12.728231547371198 151.88388993041792 -574.5329368982336
-820.8707562579497 -48.361045885245005 -115.8973775403256 13.264361600183166 135.2740215075707 -595.684373517655
-736.1882363151523 -43.2794540582903 -104.06558572379281 13.628757298994252 119.36005022565267 -609.5180032571478
-650.9845813025906 -38.065064695513 -91.85404300198199 13.788843119295821 103.90595225243318 -617.572172506319
-565.8145504445813 -33.26776986825956 -80.49584383961725 14.040741733023179 88.55357942601547 -620.8047564321909
-479.6442002611012 -27.160697012711296 -66.4718775612728 13.585691224002101 73.42067377076066 -619.2355564650962
-398.1606875088977 -24.69550149721175 -59.12926028966521 14.61999360363617 57.526027455935015 -611.9551196409697
-304.1991560705836 -13.12028718605383 -37.450358424529306 11.802321716129091 42.6795145676092 -601.4314516060032
-253.18038704453303 -24.833039819023 -49.410945808939054 15.366006589800318 27.31172599880803 -572.6654663990283
-91.05947415961447 -15.514533428295337 -80.39261255492198 13.998494826270377 10.42247696569909 -621.6861382469027
150.58829652262352 149.78742916959092 484.13057450575434 3.2006776897133187 -6.760820781010351 -523.2313493234933
-1298.6362121053005 -556.5583766165573 -556.5583766165573 -149.10554081647163 0.0 -478.25824799260977
-2112.5956313940883 -641.9768599009556 -546.7838884461148 -184.68457010476175 298.78414483995346 -1017.0567638997748
-1480.1004096596073 -191.51100010040238 -70.79428358967627 -69.50672836262778 301.8077179534679 -388.41535954849337
-1461.320617842842 -219.69365137323018 -229.50166302941886 -43.89212460814642 269.2978562258387 -387.31764716474356
-1356.4570422357813 -161.369767317936 -172.5594088568189 -13.471918195605427 216.91145688563847 -344.92752705586713
-1264.184855423136 -134.72246400657195 -166.07021784459755 3.631305432607024 177.27749549713715 -324.8713827302525
-1175.7949725883298 -111.86103949953878 -149.9124846006625 15.997472035633104 143.31994760109873 -313.2397806439484
-1086.4314643507726 -93.76820751852688 -136.6351088179885 25.09815193737198 118.31197549482722 -304.3022555619049
-998.421652276853 -79.6392546215298 -124.36583613021116 31.424717932551598 98.43439672091448 -298.3768681649436
-910.7565729367361 -67.84552702436042 -112.45969547606566 35.98605939050841 82.63171315085856 -294.19299527187854
-823.3789906824329 -57.83079867107023 -100.99364598392134 39.092920600086465 69.44455486846284 -291.3369050233564
-736.2233329940776 -48.9719251758018 -89.77563755584112 41.13220488010785 58.019668171559715 -289.4700690698193
-649.2250042621514 -40.858428759681544 -78.6616844191188 42.353678991629664 47.640680610621786 -288.35409500219333
-562.1877140078159 -33.13576205554264 -67.89920428012076 42.8168898045593 37.751730451823356 -287.9852825774179
-475.1575700904332 -25.209190988409773 -55.97139401743509 42.85240552677669 27.700068602049416 -287.9988815978319
-389.2766014482893 -18.293895861599736 -47.45843722543546 42.07309926567996 17.098784496576254 -288.68932198400364
-297.7971944623268 -6.641877243721936 -30.13823400991638 41.0689561851518 5.571986678447434 -291.0605164904071
-230.70125871587655 -9.551720531538507 -39.04806227528046 38.91724646837094 -5.9803654066317495 -288.08509661287354
-85.83464247531523 13.49462816934674 -51.03772493176858 30.472218246404832 -8.01651271542525 -341.0369056818967
103.38173343023446 177.18915639701947 314.4529857179076 0.8128934394096693 24.058393820965033 -254.93473037981798
-1387.8271768096004 -594.7830757755429 -594.7830757755429 -63.74722245908507 0.0 -552.4557457810224
-2049.8171474570026 -635.4657810443975 -526.062393651265 -16.84272576167033 20.573037806250976 -1159.310998094788
-1498.1421449635936 -285.84350129413235 -70.71380887705784 -48.59017830061679 26.6910019120001 -520.1924994742427
-1479.6996011103922 -280.9523722690633 -241.57286949384329 -14.979889151445747 31.627258114919012 -509.38981818107743
-1368.864220458429 -204.6763477574085 -181.31721274416742 -9.597824306442226 25.215719584176338 -423.45889508440825
-1275.3220943356669 -163.80665163852774 -176.62666704774193 -1.4938183180574605 14.07676302800258 -371.51169817048145
-1182.3765351200057 -129.77045447864396 -158.50725560112892 2.981917597394359 6.3848926091258065 -332.91282753461917
-1091.3866121935978 -104.91294074917812 -144.91372661471718 6.121631912276135 0.044258922195975575 -305.14901485354176
-1001.7020131241602 -85.57218039454045 -131.69064487333088 8.519547258291336 -3.801135421078055 -285.791347315009
-913.0108883787061 -70.3368027653122 -119.11698593647421 10.116472813688626 -6.335371434441371 -272.2547049081848
-824.844400482883 -57.85919937673225 -106.92288810477291 11.256354729472646 -7.783398094141508 -263.0183515074807
-737.1010815510513 -47.29835937092372 -95.044547193962 11.99697394932303 -8.572118206365062 -256.98780429831083
-649.5914611180916 -37.883469818152065 -83.22382165014292 12.417516597250899 -8.938581797538566 -253.46404336689366
-562.2203679086261 -29.2316209385086 -71.88298802407421 12.631358784971678 -9.146331675518722 -252.1790046939352
-474.49439430314635 -20.192777926207242 -59.17898384200632 12.583862863894323 -9.36368175760918 -252.77906954775855
-388.36621229156907 -12.483757350634761 -50.09675510113246 12.39200046978913 -9.922190965918107 -255.67563853877107
-295.22370738439486 0.6991633489822107 -32.265852353675626 12.25378003839008 -10.961267286604745 -262.14535741286846
-224.82042805867437 1.8973143323790396 -38.63217419216676 10.940239380863753 -12.163118799471192 -268.0800563389545
-82.31236249448807 27.662284341573496 -49.477724246087625 8.614811232696182 -10.75949266347533 -321.79601938343313
89.30879607090469 176.01492936592967 282.1175925399799 2.2936276662185793 -6.464188659098956 -256.0748815871872
-1387.8271765617037 -594.7830756693016 -594.7830756693016 63.74722285545862 0.0 -552.4557456980506
-2049.817149144859 -635.4657820611419 -526.0623945119687 16.842725307104526 -20.573037645600337 -1159.3109985062133
-1498.1421444534533 -285.84350013185826 -70.71380765945716 48.5901751570736 -26.69100291692968 -520.1925004396195
-1479.699595360208 -280.9523680822119 -241.57286551007692 14.979889858364512 -31.62725969959638 -509.3898175058307
-1368.864220733785 -204.67634871197055 -181.31721376518794 9.597830827039989 -25.215718686054483 -423.4588928049101
-1275.322103764008 -163.80665877916095 -176.62667390363046 1.4938185254127607 -14.076760123614312 -371.51169847806557
-1182.3765365530512 -129.77045499836493 -158.50725602762523 -2.9819268434321216 -6.384892804272056 -332.91283087147775
-1091.3866002659017 -104.91293163462751 -144.91371785374056 -6.121634059372872 -0.044262710631352946 -305.1490153495168
-1001.7020091458638 -85.5721776939751 -131.69064231092204 -8.51953655796396 3.801134561806 -285.7913434214782
-913.0109011518698 -70.33681246780293 -119.11699524664999 -10.116468392283144 6.335375466865339 -272.2547034444881
-824.8444069035647 -57.859204184810324 -106.92289272432248 -11.25636539493655 7.783400016155338 -263.0183553485663
-737.1010695977864 -47.29835046414968 -95.04453867628557 -11.996980156964634 8.572114600078852 -256.9878065619787
-649.5914532575529 -37.883463709927554 -83.22381576277121 -12.417507281108923 8.938579165549921 -253.46404012561888
-562.2203777618196 -29.23162801132912 -71.88299475216941 -12.631351940523393 9.146334355383598 -252.17900207773735
-474.49440201470543 -20.19278406133975 -59.17898976439929 -12.583869967431498 9.363684516474965 -252.77907183837925
-388.3662052116423 -12.483752630152395 -50.09675065494561 -12.392006464626336 9.92218944768812 -255.67564091433238
-295.22370157880965 0.6991681018617157 -32.265847758522604 -12.253775445468435 10.961265057507497 -262.1453561631331
-224.8204324109114 1.8973118816306567 -38.632176447324326 -10.940235693071278 12.163119223772812 -268.0800548006465
-82.31236487491118 27.662282080360455 -49.477726392442094 -8.614813281718984 10.759493859510053 -321.7960197570659
89.30879795129775 176.01493051635833 282.1175935856405 -2.2936282279583367 6.464188401034986 -256.07488186540905
-1298.6362116059006 -556.5583764025288 -556.5583764025288 149.1055408502048 0.0 -478.25824784311885
-2112.595634278434 -641.9768615399464 -546.7838899112335 184.68457038438981 -298.78414479179486 -1017.0567646017013
-1480.1004092797725 -191.5109988907559 -70.79428185885021 69.5067284411393 -301.80771788760177 -388.41536128130014
-1461.3206082684055 -219.69364517939727 -229.5016564956881 43.89212419663051 -269.29785624738315 -387.31764601106624
-1356.4570422292154 -161.36976822116202 -172.55941026244597 13.471917862316943 -216.91145695763592 -344.9275229912483
-1264.1848709723383 -134.722474388821 -166.07022899827274 -3.631305114534666 -177.27749549337523 -324.87138323401297
-1175.7949753072935 -111.86104062838984 -149.91248549304424 -15.997471488909847 -143.31994754387955 -313.23978658316975
-1086.4314447292913 -93.76819432101041 -136.6350945940803 -25.09815204032488 -118.31197548958995 -304.3022564750846
-998.4216455136022 -79.63925048576522 -124.36583184850781 -31.42471856986125 -98.43439675371943 -298.37686123563384
-910.7565939822762 -67.84554110653806 -112.4597106085171 -35.986059543709445 -82.63171315308114 -294.1929926531186
-823.3790013134451 -57.83080569941592 -100.9936535222532 -39.09292002096325 -69.44455486273665 -291.33691186687787
-736.2233131938511 -48.97191213891523 -89.77562365531857 -41.13220450643244 -58.01966818495071 -289.4700730967904
-649.2249913921099 -40.858419984374706 -78.66167489658162 -42.353679387317555 -47.64068059348165 -288.35408921285426
-562.1877304991342 -33.13577258705027 -67.89921535598243 -42.8168903055016 -37.75173041465651 -287.98527793467866
-475.1575826233611 -25.209199707790333 -55.971403546205465 -42.85240538369457 -27.700068633443106 -287.99888571131925
-389.2765893708467 -18.293888583121884 -47.458429772920226 -42.07309875683365 -17.098784557800784 -288.6893261913475
-297.79718511573316 -6.64187057249751 -30.138226664347364 -41.06895608464495 -5.571986644688113 -291.0605142162177
-230.70126640597528 -9.55172462185341 -39.04806622305145 -38.91724687051352 5.980365479018291 -288.08509389895045
-85.83464616266212 13.494625127099575 -51.03772829265106 -30.47221842325259 8.016512708242962 -341.03690639592384
103.38173683117333 177.1891583306173 314.4529875811666 -0.812893416950071 -24.05839386382272 -254.93473084866517
-1551.9193271577449 -104.38868923064638 -198.80019143389706 -87.01301554632074 -432.5106075685908 146.70763916728373
-1319.9738103725704 -46.023019619470915 -79.96660511658877 2.3450060391539704 -369.5235043274925 378.1929567307684
-1354.5658266351716 -93.76646939188822 -212.77857120217865 -0.5050156564873278 -302.0600735179021 -40.394136748974546
-1282.4884976969952 -74.44887045504305 -173.07470534346623 -7.996940211039598 -270.68739016785605 -204.50175416215484
-1224.7978690993687 -76.28772013276438 -175.6046376234443 -6.413569491826011 -235.02072330315647 -346.8832717574592
-1146.7120839743338 -68.29257927249586 -160.49148714012443 -9.873915411164058 -211.0550151863677 -435.3701779728278
-1069.3372681588828 -64.10940219668055 -151.07165604383155 -10.76560658160084 -188.80250154343784 -499.37636828239187
-987.6241428827625 -58.57064380198699 -139.19850165666054 -11.997016638844652 -169.61986307837492 -543.5619874837445
-904.9030673149648 -53.54777598030557 -127.79436607733956 -12.728233783614174 -151.88389192483535 -574.5329362168811
-820.8707581941635 -48.36104705096841 -115.89737906443199 -13.26435616805286 -135.2740224552528 -595.68437521996
-736.1882327204387 -43.279451889232064 -104.06558291213554 -13.628754134550917 -119.36004844549119 -609.5180042447681
-650.9845791498351 -38.06506337579867 -91.85404118215227 -13.788847846055537 -103.905950947255 -617.5721710283218
-565.8145536624016 -33.26777177804786 -80.4958462012634 -14.040745236823525 -88.55358074195001 -620.8047553241882
-479.6442022289339 -27.16069823711115 -66.47187931477266 -13.585687645984077 -73.42067514307318 -619.2355575719545
-398.1606848526062 -24.6954999610098 -59.12925853100397 -14.619990520374559 -57.526026721074125 -611.95512062309
-304.19915472923253 -13.120286327951746 -37.45035713424211 -11.802324001629472 -42.67951345757406 -601.4314509163155
-253.1803890879838 -24.833040942356263 -49.410946945758155 -15.36600851069335 -27.311726192012454 -572.6654657981073
-91.0594744935045 -15.514533730803109 -80.39261307673219 -13.99849380483277 -10.422477555082333 -621.6861385510184
150.5882977645399 149.7874298839628 484.13057521893984 -3.200677356130798 6.760820907637982 -523.2313493478327
-91.0594744935045 -15.514533730803109 -80.39261307673219 -13.99849380483277 -10.422477555082333 -621.6861385510184
1998.2626416528963 856.3982749940984 856.3982749940984 658.0478554362596 0.0 697.3430173540143
1551.9193283945212 104.38869322387427 198.80019260020072 -87.01301961267257 432.51060748208886 146.7076405905083
1319.9737946488285 46.02300291727522 79.9666004042275 2.3449713707021007 369.52352138515977 378.19296332374176
1354.5658335555474 93.76645603922492 212.77857696522088 -0.5050034095669697 302.06009619314005 -40.39414104280746
1282.488494317115 74.44887340216974 173.07470244873923 -7.996889025158743 270.68738260178435 -204.5017667123262
1224.7978657542724 76.28773699565767 175.6046330235152 -6.413584780009123 235.02069651400703 -346.88326885788547
1146.7121075309835 68.29259613550698 160.49149789161652 -9.873944153482146 211.0550060621012 -435.3701698557097
1069.3372651579475 64.10939607328328 151.07165614958535 -10.76559747978325 188.8025106096002 -499.37636762638243
987.6241163179006 58.570620008274716 139.19849151172275 -11.997036103345042 169.61988317350986 -543.5619834681575
904.9030747874388 53.54776451632705 127.79437204586716 -12.728234617184832 151.88391324069468 -574.5329388618851
820.8707663934631 48.36105593208072 115.89738141082475 -13.264300229481377 135.2740127236911 -595.6843896954235
736.188224513684 43.27947074676615 104.06557452228364 -13.628757019616367 119.36001369092871 -609.5180037457229
650.9845974967553 38.06507952508892 91.85404850747014 -13.78889521508958 103.90593808009893 -617.5721581676094
565.8145590551511 33.26776478048981 80.49585100662793 -14.040740537539294 88.55359610943508 -620.8047528739431
479.6441709580565 27.16067107122589 66.47186777013299 -13.585690415697021 73.4206987149911 -619.235556651665
398.1606867572975 24.69548776767448 59.1292624226038 -14.619999847819091 57.52604796409428 -611.9551219394217
304.1991751909404 13.120298901289686 37.45036533602825 -11.802270915756168 42.679506100536 -601.4314659205356
253.18037270545764 24.83305506792489 49.41093369724647 -15.365998495538445 27.311689524335012 -572.6654689715859
91.05947752005642 15.514546841330954 80.392611723339 -13.998549843113256 10.422455694594554 -621.68612532693
-150.58826687599682 -149.7874211808922 -484.13055997161797 -3.2006612852073597 -6.760811950262252 -523.2313543081726