<?xml version="1.0"?>
<VTKFile type="StructuredGrid" version="0.1" byte_order="BigEndian" >
    <StructuredGrid  WholeExtent="0 32 0 1 0 8">
<Piece Extent="0 32 0 1 0 8">
    <PointData Vectors="Disp"  >
<DataArray type="Float32" Name="Stress" NumberOfComponents="6" format="ascii">
179505.84370707808 76931.07587446203 76931.07587446203 -61728.17925076579 0.0 -31226.61805824576
115494.76449756401 -606.8653519140789 19032.45831098509 -33835.89408179939 -12062.578728011562 27686.133737671295
26278.746515728286 -13252.825225176432 7144.461140909416 -58094.68341863843 -1379.1092736190003 33665.875681152575
-42217.77829143277 -33545.02800511822 1072.643731335529 -66894.80433421249 8856.218323714995 29188.907762636863
-100378.01428208906 -56662.498900554216 -4809.706259164197 -87913.4104048716 16242.604000417872 22023.37260607978
-141090.16260475002 -81706.09617617718 -9307.842292254922 -107201.92465701135 20124.077381832292 11001.778008941557
-164308.19183340584 -106534.18180787809 -12883.598088061197 -124760.10992403816 20025.45162734145 -773.1143106737281
-170775.6731391384 -127248.68006891041 -14993.180627293805 -136413.5314543048 15589.622107688887 -12010.1581407817
-163179.07359312774 -140190.05759743747 -15596.430169132422 -140601.06216708175 7196.885236524887 -20925.188541873136
-145339.33489836345 -141101.902910206 -14822.547900182297 -137135.0192795794 -4860.234300355712 -26645.350791806897
-120075.43591078988 -126126.5741985063 -12135.106811744692 -125407.58198393737 -18626.60346791325 -28101.983205366327
-93411.85238209798 -93828.28468053587 -9641.287986239171 -112741.27284449904 -34869.49020320952 -25806.491223497393
-62862.9856557864 -35000.408638232424 -2167.434233401933 -88856.60067590454 -46305.019822945156 -18322.25922863714
-43769.03671662841 19164.086100251723 -6237.20916776482 -93264.87877413131 -63330.78257710987 -9899.59735850377
-7470.427067033204 179534.3828655405 22946.67513540956 -66447.57379304341 -58630.434415894044 10103.061350438758
5195.475444255251 264739.57895623776 29357.756695696764 -88538.74484634995 -25055.16669605936 15298.633459443317
-50628.98564567437 259736.11743188673 5311.872561739758 -37015.192948518255 -2984.5957219281217 12908.792626399749
5195.470730395929 264739.568186142 29357.756826256693 88538.76137571808 25055.18071904108 15298.637494240076
-7470.428808536817 179534.3796572156 22946.672115397407 66447.57592491758 58630.439661977885 10103.059675939341
-43769.035169179246 19164.087912185598 -6237.209492532213 93264.87617619304 63330.780396572714 -9899.597666275688
-62862.98629895115 -35000.409608110174 -2167.434643226812 88856.60121808341 46305.01839161768 -18322.258584155654
-93411.85252081235 -93828.28470923415 -9641.287835328643 112741.27300678077 34869.49069891452 -25806.49150861387
-120075.43557718361 -126126.57381282197 -12135.106583623572 125407.58171748024 18626.603755863234 -28101.98344221785
-145339.3349917782 -141101.90303654017 -14822.548005809025 137135.01935682975 4860.234127482794 -26645.350643508787
-163179.073681799 -140190.0576841697 -15596.43022350435 140601.06222854066 -7196.885273821863 -20925.188503775847
-170775.67307868562 -127248.68001334873 -14993.18058241874 136413.53141184465 -15589.622057735447 -12010.158199095422
-164308.19182299793 -106534.18179733629 -12883.598082989014 124760.10991727843 -20025.451628302042 -773.1143062541704
-141090.16262577334 -81706.09619201504 -9307.842305728846 107201.92466896307 -20124.077392927265 11001.778025846063
-100378.01427988612 -56662.49890024519 -4809.70625753483 87913.41040449459 -16242.603998533194 22023.372600463987
-42217.77828618221 -33545.02800158069 1072.6437344367132 66894.80433178322 -8856.218321717763 29188.907759072856
26278.74651387141 -13252.825225886452 7144.461139798987 58094.68341885617 1379.1092732131713 33665.87568344232
115494.76449654825 -606.8653525820118 19032.458310385216 33835.89408219385 12062.578727716365 27686.13373806762
179505.84370842666 76931.07587504 76931.07587504 61728.17925067975 0.0 -31226.61805880375
-179453.7932544337 10909.454985858742 -7635.714561856876 -43190.58988355483 -10512.898766873277 -8687.807063166003
-78410.25316482468 -13339.202102186808 -2353.797256327697 -60558.208730507125 -3445.8769658075175 -13570.535933239624
9324.447069084887 -17965.28125315826 6897.4681726745 -40008.923199426165 -1992.5840031426912 -18977.446567507497
67871.91301621014 -17190.516024059405 9193.66618005099 -8661.648504243147 725.3429050968751 -17946.43321844326
95985.52200976582 -4104.234672028055 9693.197343446958 25352.50625812352 2289.1837444748767 -15409.764746341967
97713.6209169194 17027.956911738445 8499.320517699247 52822.32012213736 4173.742724709504 -11687.285779224663
79597.32829094656 42913.929423585316 7196.4378870504825 68022.0293433092 6588.187724305862 -7672.919953435879
49995.27568489993 67183.98664664882 6644.620425445886 67787.5805697555 9999.541157600719 -3753.0627899266888
16659.178153664292 82295.0171470351 6880.757230471689 51571.5001455476 14308.642955845335 -593.9758202890853
-12018.205558396112 80753.40583984452 8326.179267285283 21529.61092825492 19580.793510974287 2635.5568580845993
-34570.94283419462 52732.901564675194 7291.610544976895 -19274.902852757277 24153.45284884348 3837.3037675608557
-34471.24937573671 495.57410985214483 10461.36264888588 -56648.10047132835 30761.98273650097 8786.567476913544
-54371.14201492147 -104845.33922504827 -6854.182696622287 -111251.61267378647 30066.66126870441 6389.43923344596
50975.318882828695 -169452.99776762526 24445.967397692264 -44602.13025942614 33307.71758562543 15199.896957604751
-163813.877880381 -373199.4710512621 -36253.61588284455 -288197.59572987375 100657.33402764272 17280.55481833072
-232529.11602556438 -517269.5452377086 -51494.20117109662 110927.07034326128 -4382.306444055513 20222.07657017387
-163813.8814940357 -373199.493602363 -36253.620021281065 288197.602687252 -100657.35086688124 17280.560040446697
50975.309001128015 -169453.01704017006 24445.957305193704 44602.13299503788 -33307.722147218745 15199.89507892954
-54371.1423156877 -104845.33745515515 -6854.183166770599 111251.61075433188 -30066.65934639159 6389.436943911756
-34471.249039316775 495.57513714181914 10461.36315850641 56648.10008496587 -30761.98252274414 8786.567707406477
-34570.94305709267 52732.90139694403 7291.6105625333985 19274.903155944114 -24153.452721924492 3837.3040646459044
-12018.205492913272 80753.40591982106 8326.179313382527 -21529.61096108539 -19580.79336126406 2635.5567808255987
16659.17814317831 82295.01709124845 6880.757178223823 -51571.50013269891 -14308.643054944509 -593.9757781420943
49995.275647923394 67183.9866100726 6644.620401958142 -67787.5805443072 -9999.541179050084 -3753.0627673797803
79597.32832651548 42913.92946519092 7196.437918462074 -68022.02937142825 -6588.187688294804 -7672.91998621859
97713.62091707202 17027.956910818204 8499.320516144211 -52822.32011968483 -4173.742731472808 -11687.285773354935
95985.521995571 -4104.234684833849 9693.1973335279 -25352.50624808194 -2289.1837523800514 -15409.76473660329
67871.91302202588 -17190.51601990062 9193.666183966685 8661.648499966312 -725.3429008826661 -17946.433224409207
9324.44707194268 -17965.281250745757 6897.468174517066 40008.923197673656 1992.5840040106348 -18977.44656876074
-78410.25316764155 -13339.202103797841 -2353.7972580035675 60558.20873208074 3445.876964645402 -13570.53593095378
-179453.7932546856 10909.454985509234 -7635.714562073641 43190.589883672765 10512.898766828761 -8687.807063342665
-402017.83725838945 -172293.35882502404 -172293.35882502404 122036.70815327727 0.0 94091.69299633516
-179453.7932546856 10909.454985509234 -7635.714562073641 43190.589883672765 10512.898766828761 -8687.807063342665
224704.8873430687 96302.09457560086 96302.09457560086 -89252.29990693284 0.0 20783.247799089073
142661.19550041517 8903.423676608465 50695.71106010795 -20225.05341530502 125.29423701711708 24908.52035287038
21610.296924506787 -3522.967338278788 19002.976836580834 -30713.317767704284 4102.363613145661 30528.279555321686
-62266.877272618 -20117.61765408786 527.8507340237046 -43233.674394801834 9976.462008165605 28195.614368119528
-128928.33160512234 -43805.530941672805 -15389.743785093315 -73667.96047538909 14208.972813728587 21911.54537176318
-173536.94996516057 -74794.90721894786 -28376.968689174548 -106254.17685042652 15175.273869523371 12713.521651113158
-195056.30155593308 -109836.15296816322 -38308.92838484456 -135831.51520542376 11940.360991206993 1477.8701084609704
-193849.29572745666 -142576.17925459176 -44317.846832936 -154568.74307340194 4399.033263304178 -10167.927324752503
-173257.7314168744 -165629.49775043692 -45869.25085026289 -157852.74191831873 -6973.308990006136 -20575.40519312318
-139344.36039418908 -171521.20344645597 -42711.40167403243 -144486.99247110533 -20796.751317456823 -28046.505410673908
-99449.82618496145 -155148.6284407611 -35574.57444896228 -116492.6993630302 -35657.33579071064 -31510.517505688407
-61278.52369381994 -113586.64498307966 -24919.88790175167 -81858.51234287125 -48762.9393144329 -30245.21066796958
-29210.396449444183 -45495.85173440519 -11779.265369686495 -42267.61371208183 -59252.56543626743 -24574.77941052562
-9234.44980760412 36202.38719415098 1067.8638493059843 -21462.607834088594 -61286.63201631561 -15022.677347855395
15686.459894042142 180150.41478310124 36123.545660541626 -1646.6800532227176 -52605.757840313134 -4805.793089640826
22321.042971517134 286101.6142389404 63238.795828604256 -19810.900849113812 -26983.345903570706 1106.705014402656
-6395.1681726176175 311363.39052971656 60255.26099115572 -15327.050774892896 1372.4921950037867 2336.240229772703
22321.039226416993 286101.632697178 63238.79934043306 19810.943613158615 26983.384103394674 1106.705338253666
15686.482226166787 180150.45947932662 36123.56602349834 1646.6824944821558 52605.767698039446 -4805.794536458171
-9234.44021507707 36202.39575332592 1067.8697771325315 21462.60157257147 61286.626784534994 -15022.676100998962
-29210.400799799987 -45495.85963539093 -11779.269087385237 42267.61698363299 59252.563365147296 -24574.778496208186
-61278.52584683575 -113586.64720327617 -24919.889348825996 81858.51345666892 48762.93994711875 -30245.211107221916
-99449.82459336781 -155148.62643129827 -35574.573332288746 116492.69791442495 35657.33621806739 -31510.517851122328
-139344.3601768933 -171521.2032842505 -42711.40152761587 144486.99240091653 20796.751155897124 -28046.505260833273
-173257.73196636597 -165629.49829570472 -45869.25119633432 157852.7423329477 6973.308913561352 -20575.4051149541
-193849.2956458285 -142576.17918252625 -44317.846791713855 154568.7429966511 -4399.033213834143 -10167.927385551377
-195056.30141266974 -109836.15284713321 -38308.928299492734 135831.5151139109 -11940.360982444612 1477.8700994950773
-173536.9500257216 -74794.90726018694 -28376.96871997007 106254.17688712092 -15175.27388203872 12713.521671630833
-128928.331632877 -43805.530964035315 -15389.743801721364 73667.96049073972 -14208.972813715143 21911.54536954695
-62266.87724939938 -20117.617640643777 527.8507454752541 43233.67438497313 -9976.462005658572 28195.614362627697
21610.296926921517 -3522.967335385987 19002.976838478702 30713.317765605945 -4102.363613249897 30528.279557023303
142661.19549432598 8903.423673485944 50695.71105716607 20225.05341687469 -125.2942373443313 24908.52035388178
224704.8873460654 96302.09457688517 96302.09457688517 89252.29990717972 0.0 20783.24779850442
-196062.68915650382 2371.295753710976 -55317.27275992249 -41264.47768405662 -1727.8078632702702 10571.48883734926
-91253.33915905636 -6775.738135662417 -16062.59637670333 -43041.315335055064 -3197.9781090512333 -6146.872678901463
-8996.26158625029 -8717.046497079202 4001.6905934604147 -23067.61498387455 -3173.7289466849315 -13767.967096825396
48771.60170465079 -5614.845357294289 14761.98780510876 3519.349193814479 -3108.6696733564363 -17257.34875598601
78258.3742517953 5186.342420357942 17733.156536313792 30576.461521647758 -1936.9408406045263 -16558.329295513566
84566.55740791076 21400.88823532282 16985.293574452302 51948.65143537805 570.0559752983523 -13055.05399474906
73975.65204104879 40671.97470366927 15555.868958937215 63978.49003268886 4697.199976335298 -7754.594617827736
53794.809494240086 58442.07290563674 15713.111160118493 64850.69506832813 10278.249139532963 -1761.6052095891087
30679.528777749932 69106.79399505309 18295.887593842774 54472.99277101084 16885.469928311428 4063.7984083556084
9857.121173507563 65807.99145854403 22076.773828905767 33943.732396593434 23706.836801674683 8744.628758632034
-5447.745422260552 41681.82948780625 24875.099843355056 6189.8049982246675 30341.590647855824 12512.089619312188
-10234.449461262724 -6949.464149015013 24832.81038044538 -22301.736406743876 35679.87134781247 14066.972602574602
-18795.604631415787 -91968.64426822588 13041.707009035978 -55706.44804811827 39772.86606002901 15283.886057492511
36016.955795918984 -161157.09806942954 30101.30710549427 -28108.301369294546 47463.02495056212 16069.940434931208
-60398.88542213345 -329757.2151254687 -28285.32744170542 -123206.33429599588 39723.310183087706 17274.34114891774
-105848.70308741882 -458647.7351686635 -68646.19620503523 42730.70146671697 866.320509546112 15548.160719769216
-60398.88747221613 -329757.24022918835 -28285.333238578663 123206.37163526547 -39723.30603082254 17274.34647180404
36016.93794979398 -161157.13286011908 30101.290450937217 28108.31445464377 -47463.02600153055 16069.937797967836
-18795.603045858734 -91968.64151969606 13041.707697072074 55706.44035187852 -39772.86707560307 15283.88411059048
-10234.448730675194 -6949.463065184835 24832.810940547897 22301.73419094638 -35679.87163734546 14066.972976580846
-5447.7471779677035 41681.82805418188 24875.098888995104 -6189.803780570814 -30341.590335227218 12512.089897197242
9857.121428212875 65807.99217343156 22076.774143521725 -33943.73264733622 -23706.83654010739 8744.628640664028
30679.529083262387 69106.79419454579 18295.88776244512 -54472.99291419987 -16885.470031153727 4063.798444369717
53794.80924147392 58442.0725997186 15713.110980079502 -64850.69484843322 -10278.249191956958 -1761.605162900198
73975.65208050412 40671.97477302509 15555.868989611816 -63978.49009140495 -4697.199936813171 -7754.59465161591
84566.55748213943 21400.88830125828 16985.293621222 -51948.65148196758 -570.0559750820189 -13055.053998112271
78258.37420446535 5186.342377257071 17733.15650809026 -30576.46148114405 1936.9408301163294 -16558.32928269685
48771.601699437015 -5614.845361807038 14761.987801064563 -3519.349194661862 3108.6696766758964 -17257.348759767894
-8996.261568780814 -8717.04648444564 4001.690603208517 23067.614972457082 3173.7289483429004 -13767.967099793654
-91253.33916300915 -6775.738137261003 -16062.596378228525 43041.31533844112 3197.9781078584538 -6146.87267686665
-196062.6891603396 2371.295751256708 -55317.27276206936 41264.47768573021 1727.8078630818634 10571.48883770661
-334002.08516418847 -143143.7507846522 -143143.7507846522 134852.15231600194 0.0 777.6371037333636
-196062.6891603396 2371.295751256708 -55317.27276206936 41264.47768573021 1727.8078630818634 10571.48883770661
215833.91041683577 92500.24732150104 92500.24732150104 -81842.63981817545 0.0 13055.794525062622
133480.66138733114 5227.000339922699 48776.762080600805 -20554.128525037908 2895.429235086117 13096.963730535766
19286.709184959087 -5410.9487794462475 17561.085927193642 -35356.69781223091 3722.9413830186463 12294.211105595212
-65948.21770962096 -23389.254035500362 -7759.579788754273 -48420.60322908796 3761.3037775981984 10766.708184902343
-133655.45832417675 -47857.67593739663 -30314.791175624483 -78393.7964471965 3511.0425852105313 7660.813810623559
-178288.62209369542 -79165.40611348825 -49246.11938919094 -109651.62760065572 2412.116123061662 3814.0083948171023
-199144.62087088198 -113884.72836897538 -63516.09872838526 -137637.2688461367 72.57157781413031 -489.1572375597135
-196791.13549163874 -145530.92387754883 -71676.74738352119 -154698.01846739525 -3684.988686378427 -4877.244333018421
-174974.0561372787 -166716.90295756242 -72817.8351731408 -156577.47994106213 -8608.395861111201 -8728.533657708824
-140156.63594195715 -170184.80334877947 -66755.032624418 -142428.18714081237 -14172.317713496781 -11456.189854762282
-99520.75755003278 -150721.95209618506 -53794.21166726272 -114434.78807504229 -19356.095298608634 -12566.015357171056
-61302.689341328514 -106594.90430823635 -35565.91991639086 -81017.13341940014 -23330.51592854281 -11965.908565361502
-28361.996151168398 -35552.92202845343 -11102.483281877663 -43273.576149767614 -24428.673173400453 -9866.327373680278
-8386.086402604367 45105.8563017375 12944.819387196527 -25856.36123207407 -22420.87396624229 -7052.516165856988
15010.545831145515 182472.3745925443 57022.422706659854 -6886.216888673289 -16620.8572204416 -4923.96735799271
19094.155422611628 276149.8873084519 83327.38877801245 -23836.975176394055 -10494.105729172323 -3517.11140404908
-10501.716534095089 296942.07607137796 79934.0866230632 -16356.018350547089 -642.5464945453235 -3311.0228561087447
19094.152607942262 276149.9235454966 83327.38822647241 23837.019919786522 10494.10775947627 -3517.113688179113
15010.581248660732 182472.4439921154 57022.45759831845 6886.2172255336845 16620.8561411817 -4923.966508455907
-8386.073517366742 45105.86727669829 12944.830053090898 25856.355061276383 22420.87423368922 -7052.515876892398
-28362.001854747876 -35552.93237276063 -11102.488349640797 43273.580442841376 24428.673615339434 -9866.327632498822
-61302.69239923387 -106594.90752644098 -35565.922494809274 81017.13480518248 23330.515692922745 -11965.908445413379
-99520.75564749516 -150721.949683877 -53794.210334805946 114434.78630014746 19356.09523710633 -12566.015301213318
-140156.6355158786 -170184.8029725648 -66755.03223839 142428.18697577337 14172.317796189187 -11456.189920744582
-174974.05681615183 -166716.90362785012 -72817.83560808988 156577.48045377427 8608.395857993704 -8728.533654794777
-196791.1354442958 -145530.92383929767 -71676.7473874136 154698.01840085443 3684.9886670897176 -4877.244312472075
-199144.62068069345 -113884.72821000879 -63516.09860919752 137637.2687274388 -72.5715727964133 -489.1572451084308
-178288.6221552409 -79165.40615317458 -49246.119415300185 109651.62763949472 -2412.1161198073023 3814.008390831809
-133655.45836590207 -47857.67596989251 -30314.79120284108 78393.79646859613 -3511.042586877235 7660.81381412184
-65948.21768303224 -23389.254020705193 -7759.579776373757 48420.60321807992 -3761.3037780155246 10766.70818506514
19286.70919060398 -5410.948774268887 17561.085931740294 35356.69780910526 -3722.941382682673 12294.211104546132
133480.66137992486 5227.000336275305 48776.76207711495 20554.128526782544 -2895.429235003339 13096.9637307639
215833.9104196433 92500.24732270426 92500.24732270426 81842.63981859376 0.0 13055.79452523567
-181714.97950446996 9281.362545991375 -49791.99364721999 -40325.4514838858 1095.9505660216312 1821.1226902884355
-90317.452334728 -8113.824059163679 -25894.51422299385 -45475.94689764256 1249.0015563755296 2657.2597141734036
-9842.820121951365 -10123.946425915214 1075.5828240515002 -25826.87693531318 57.32487142843437 -1448.5047922693343
46968.92978876428 -7736.297732442617 18618.980110491044 1024.8550323309905 -1021.5751604770712 -4060.0068992105653
77339.66273293625 3843.1495863571763 29603.143798487432 28955.6926571029 -1777.3300302934294 -5123.760048772564
84709.86737393308 21005.407678211493 34999.99350090811 51276.204941779564 -1593.6765290445512 -4281.065757744233
74986.06703674175 41322.368318609086 37470.98713973595 64087.35343471356 -244.98826798650845 -2086.1507231581318
55120.9546122192 59846.340309901934 38545.99154234983 65432.24229512196 2182.3028083208333 702.8685618934518
31529.91759985891 70743.93692139602 38791.113257966106 55068.82297645741 5239.98687472006 3269.2097024546333
9975.225320796428 67514.24824191675 37763.186503414414 34279.92470772789 8473.868232418477 5186.146186272135
-6932.933733836606 42868.47699563818 33349.61767450808 5536.170840135641 11378.672068354592 6098.895482517359
-11898.29401790283 -5348.1602693959085 26324.20172033577 -23475.97204818675 13957.980077105556 6153.425598951105
-21739.499038536025 -90231.46827338533 8100.320707969018 -58846.571350708626 16295.199060552568 5554.06459982256
30579.089240221743 -167062.88044024465 10366.696209504677 -32162.48172734904 13560.887841045 2317.2587559337976
-70245.15452940666 -324520.7941788636 -61250.68694105197 -136370.42604459578 5399.515658580773 1489.1370488739683
-109696.80084210177 -431668.81353538926 -105610.79458340508 49085.08422155399 -649.7386508114743 1539.1675250974433
-70245.15519259442 -324520.8104941332 -61250.693487921264 136370.47286876425 -5399.503938865014 1489.1358847078009
30579.074663840875 -167062.90922298323 10366.684046025854 32162.49665610458 -13560.886040398309 2317.2592867077483
-21739.496178645233 -90231.46538777248 8100.322966328393 58846.56219186507 -16295.200301292642 5554.065210042448
-11898.293525292716 -5348.159873851755 26324.201795043766 23475.969444567676 -13957.980061160362 6153.425411094324
-6932.936111726249 42868.47501261306 33349.616049644275 -5536.169398312917 -11378.672092374863 6098.89540820789
9975.225593999909 67514.24913231563 37763.186876401385 -34279.925008954284 -8473.868261170974 5186.1462232792
31529.918066120248 70743.93727962334 38791.11360533626 -55068.82318607127 -5239.986833258914 3269.209680641217
55120.954304187995 59846.33992553866 38545.99131470591 -65432.242020009355 -2182.3028144927234 702.8685627646299
74986.06705048117 41322.3683692233 37470.987138909775 -64087.353489769564 244.98825684021622 -2086.150712161842
84709.86747646853 21005.407771382517 34999.99357170742 -51276.20500710366 1593.676535141377 -4281.065763917477
77339.66268276113 3843.1495399092237 29603.143771010375 -28955.69261036295 1777.3300313881189 -5123.760050299052
46968.92977558241 -7736.297743396208 18618.980099088905 -1024.8550298527566 1021.5751584699267 -4060.0068961872785
-9842.820100921166 -10123.946410787476 1075.5828357726296 25826.876921049632 -57.32487114130828 -1448.5047928570052
-90317.45233726985 -8113.824059547049 -25894.514222864564 45475.94690097186 -1249.001555989284 2657.2597133210083
-181714.97950948094 9281.362542904302 -49791.993650092525 40325.45148614496 -1095.950566151239 1821.1226906896452
-338427.5254037964 -145040.36803019844 -145040.36803019844 128755.28226749554 0.0 5826.193407720434
-181714.97950948094 9281.362542904302 -49791.993650092525 40325.45148614496 -1095.950566151239 1821.1226906896452
211445.33500530352 90619.42928798722 90619.42928798722 -81607.15688976487 0.0 6233.314075648535
130876.02955788425 4937.518523054889 45165.12032963241 -20208.7474895623 706.1686858331008 6597.858919552322
16462.410931593364 -6274.494403911511 12792.326568311215 -34626.62324349463 1616.2786644431578 7020.736818440754
-67764.39818095809 -23707.492651494336 -12553.752460659673 -48683.36372218267 2324.485788978548 5910.785611013061
-135236.40884816955 -48022.82471655942 -35960.408917088476 -79281.77404517612 2464.1137092306553 3870.927916102334
-179150.18775564694 -78890.44151813196 -55588.15789481347 -110915.83527438437 1945.8947294138138 1255.7754630504885
-198793.36848108564 -112932.19167572516 -70393.7709022285 -138710.88513963966 708.5389154698606 -1414.933784537155
-195191.13888565806 -143697.3921015335 -78630.55374626032 -155180.8716157138 -1245.659588970219 -3813.3995987872217
-172558.48651444577 -164013.43185568065 -79245.50372497135 -156280.16988914972 -3812.706258777956 -5692.648285851731
-137559.83869480254 -166757.55452097964 -71855.77010065663 -141405.8888185107 -6682.54116606126 -6793.128882053396
-97495.02635525928 -147081.76675082152 -56961.48843227567 -112976.5390954407 -9432.823124487537 -6955.328786431446
-60163.630629095016 -103128.68260936276 -35974.69763588532 -79437.63627221152 -11413.292517949149 -6121.097842745081
-28570.09125813371 -33229.737689189526 -8996.62610581523 -41958.05829819165 -12249.122337822133 -4538.022037488051
-9973.722090268722 44982.317699954525 16854.620230825687 -24785.814178645836 -11489.824623704211 -2596.9225426309927
12271.001336294183 181006.86333377397 61449.23011058933 -5634.709118430184 -9216.240577740564 -651.9717931515595
15710.57986531104 272785.7356651076 87879.62768351301 -23611.706212360747 -4748.4061233414395 811.2149780282269
-15384.533206537511 291339.4680780143 83078.73792756342 -16873.773909629068 189.47159977883976 1513.447674699528
15710.580199512377 272785.7603917412 87879.63184883058 23611.735814483272 4748.363148021318 811.2125635756628
12271.02128081533 181006.9031074115 61449.24900101568 5634.710717661717 9216.22672515088 -651.9691151559457
-9973.714596238853 44982.32385136971 16854.625617793503 24785.810002175447 11489.831262923382 -2596.9238128941183
-28570.094336648704 -33229.74351691661 -8996.628766938658 41958.06056952881 12249.12557437969 -4538.023532348793
-60163.63250117684 -103128.68458752208 -35974.69908907528 79437.637182397 11413.291451107532 -6121.09718510063
-97495.02525766924 -147081.7653421274 -56961.487684062944 112976.53804642762 9432.82249144651 -6955.328267327455
-137559.83842465084 -166757.55427988237 -71855.76987350779 141405.88870193486 6682.541462974469 -6793.129137127436
-172558.48693026422 -164013.4322661857 -79245.50398627807 156280.17020547987 3812.7063544852217 -5692.648388335633
-195191.13885867904 -143697.39208015735 -78630.55374949634 155180.8715763172 1245.6595053446144 -3813.39949895984
-198793.3683602664 -112932.19157511869 -70393.77082760666 138710.88506418857 -708.538921205593 -1414.9337798442903
-179150.18779382686 -78890.44154246025 -55588.1579104063 110915.83529860624 -1945.894710353852 1255.7754319125736
-135236.40887578248 -48022.824737855044 -35960.408934876774 79281.77405917176 -2464.11371103836 3870.9279226116464
-67764.3981640481 -23707.49264220842 -12553.752453028002 48683.363715221385 -2324.485792407296 5910.7856184359025
16462.41093567416 -6274.494400328067 12792.326571496616 34626.6232414 -1616.278663976816 7020.736815035061
130876.02955306819 4937.51852072504 45165.120327434546 20208.747490661797 -706.1686854082964 6597.858918465791
211445.33500698785 90619.42928870907 90619.42928870907 81607.15689005125 0.0 6233.314076790903
-183249.51492555035 7175.107360304653 -49837.76968501887 -39999.184252017025 578.5053595378007 2252.8821642215958
-87341.45317548107 -6907.673397837229 -22786.143631602165 -44661.16924385298 487.2501668661789 8.131093529814132
-9483.022260027577 -10693.379244472198 637.9035021822874 -25761.70215541094 455.0754039277451 -656.3712732854
46771.424060546015 -8498.359133450256 19327.09343261744 846.2028469840373 105.66146701556131 -1950.398885800324
76417.40752909302 2514.713145603877 31536.263387613246 28607.199116889926 -210.91120637703276 -2582.8253971466706
83643.58464824833 19657.568684076796 38731.982173851815 50973.722973316 -225.59693625354922 -2384.763053215218
73880.53065072499 40132.40555251814 42321.822309052695 63948.529989624025 286.9185744695721 -1457.7626625321873
54014.22129462625 59001.93836532885 43668.69934256025 65471.85527988844 1310.4100953440318 -193.96746195524221
30455.058581246183 70366.1436127967 43279.11468013744 55287.12236648715 2690.31451460238 1055.2587080193537
8906.954881083104 67583.93697337412 40936.930853365295 34540.714293816316 4203.6609636917865 2037.96454112849
-7879.015680378787 43406.958861031526 34989.903326745676 5799.189318113762 5792.8941082002475 2698.2942294249005
-12276.286320316161 -4369.100318725295 26943.070659136723 -23167.86623981658 7370.302851999026 2989.5281298780183
-23050.367648817315 -90291.23770482035 5608.977665477614 -59244.30593966754 7981.310207367485 2418.0227903571367
32184.284668454522 -161698.0477118801 7466.720145402767 -29663.670014029063 7623.543538229781 1759.075632711666
-71478.11731888344 -318631.8821256102 -65397.525759160824 -136568.68366850808 5355.036708095577 87.82909463778772
-112320.80111137233 -429055.5390375273 -107467.2947486532 50363.14420807823 278.51665581180123 -646.1251450127727
-71478.11525431919 -318631.89078997436 -65397.52590108683 136568.71308640065 -5355.031059962125 87.8208568829825
32184.273045289243 -161698.0703791674 7466.709276923793 29663.67981031614 -7623.542133616737 1759.0793974744943
-23050.3670595381 -90291.23707976975 5608.977486396878 59244.30029032986 -7981.310559633363 2418.0260300748296
-12276.285690835291 -4369.099375474163 26943.07114302612 23167.864340710923 -7370.3021668935435 2989.5274761259657
-7879.017003022887 43406.95780036348 34989.90256911109 -5799.188445748113 -5792.8944772078285 2698.293800025596
8906.954996324013 67583.93745142463 40936.931038300325 -34540.71442479492 -4203.661350149159 2037.9647375333536
30455.05886146458 70366.14382786037 43279.11487344702 -55287.12249727019 -2690.3143450967686 1055.2586416635065
54014.221108790895 59001.93813105119 43668.699206675534 -65471.855112173354 -1310.410032372817 -193.96752187931915
73880.53065791831 40132.40558316571 42321.8223085333 -63948.53002313385 -286.91863578957566 -1457.7626081530568
83643.58471323374 19657.568743251937 38731.98221813163 -50973.7230149537 225.59694112457467 -2384.7630550289637
76417.40749819267 2514.713116734085 31536.263371083376 -28607.19908727879 210.9112209630975 -2582.8254153991616
46771.424051433234 -8498.359140931323 19327.093424945262 -846.2028450792789 -105.66147283856365 -1950.3988778147407
-9483.022246751818 -10693.37923492511 637.9035093967477 25761.702146175066 -455.0754059133043 -656.3712699780016
-87341.4531767402 -6907.673397848215 -22786.14363125601 44661.169245907724 -487.25016508302195 8.131089983448206
-183249.51492879255 7175.107358342793 -49837.7696868118 39999.18425351616 -578.5053593435811 2252.8821641499385
-331553.6021847208 -142094.4009363089 -142094.4009363089 127731.58675902507 0.0 2023.9578319178388